TITLE     = "p3tec"
VARIABLES = "x"
"y"
"z"
"p"
ZONE T="SubZone"
 I=33, J=1, K=65, ZONETYPE=Ordered
 DATAPACKING=POINT
 DT=(SINGLE SINGLE SINGLE SINGLE )
 2.729049E-001 0.000000E+000 4.583333E-002 1.016229E+000
 2.729860E-001 6.960420E-004 4.582805E-002 1.017293E+000
 2.732534E-001 1.441678E-003 4.581065E-002 1.017061E+000
 2.737341E-001 2.196979E-003 4.578065E-002 1.013852E+000
 2.744241E-001 2.936929E-003 4.573914E-002 1.008209E+000
 2.753170E-001 3.649971E-003 4.568777E-002 1.001047E+000
 2.764151E-001 4.325631E-003 4.562876E-002 9.931726E-001
 2.777263E-001 4.952164E-003 4.556501E-002 9.852308E-001
 2.792622E-001 5.517308E-003 4.550004E-002 9.776446E-001
 2.810370E-001 6.007151E-003 4.543797E-002 9.706261E-001
 2.830644E-001 6.415782E-003 4.538207E-002 9.642149E-001
 2.853612E-001 6.743674E-003 4.533450E-002 9.582486E-001
 2.879470E-001 6.996491E-003 4.529618E-002 9.524201E-001
 2.908448E-001 7.181241E-003 4.526725E-002 9.466067E-001
 2.940809E-001 7.304113E-003 4.524759E-002 9.412810E-001
 2.976840E-001 7.364214E-003 4.523785E-002 9.372720E-001
 3.016842E-001 7.353546E-003 4.523958E-002 9.193521E-001
 3.061830E-001 7.262165E-003 4.525434E-002 8.742719E-001
 3.109337E-001 7.042861E-003 4.528899E-002 8.378673E-001
 3.157597E-001 6.667161E-003 4.534582E-002 8.472775E-001
 3.204724E-001 6.136119E-003 4.542073E-002 8.796411E-001
 3.248997E-001 5.474955E-003 4.550516E-002 9.030131E-001
 3.289096E-001 4.726479E-003 4.558898E-002 9.210526E-001
 3.324261E-001 3.955113E-003 4.566237E-002 9.450196E-001
 3.354256E-001 3.217466E-003 4.572026E-002 9.747444E-001
 3.379244E-001 2.548916E-003 4.576240E-002 1.005733E+000
 3.399663E-001 1.968587E-003 4.579104E-002 1.034146E+000
 3.416094E-001 1.482705E-003 4.580934E-002 1.055283E+000
 3.429156E-001 1.086786E-003 4.582045E-002 1.064062E+000
 3.439442E-001 7.708788E-004 4.582685E-002 1.059977E+000
 3.447484E-001 5.228842E-004 4.583035E-002 1.048075E+000
 3.453741E-001 3.313543E-004 4.583213E-002 1.035057E+000
 3.458593E-001 1.851120E-004 4.583296E-002 1.030771E+000
 2.729049E-001 2.697677E-018 4.583933E-002 1.023342E+000
 2.729860E-001 6.960222E-004 4.583403E-002 1.025449E+000
 2.732533E-001 1.441639E-003 4.581663E-002 1.024981E+000
 2.737340E-001 2.196926E-003 4.578663E-002 1.020184E+000
 2.744241E-001 2.936868E-003 4.574515E-002 1.011874E+000
 2.753170E-001 3.649909E-003 4.569381E-002 1.001431E+000
 2.764151E-001 4.325573E-003 4.563483E-002 9.900761E-001
 2.777262E-001 4.952116E-003 4.557112E-002 9.788010E-001
 2.792621E-001 5.517271E-003 4.550617E-002 9.682781E-001
 2.810369E-001 6.007126E-003 4.544411E-002 9.588664E-001
 2.830643E-001 6.415766E-003 4.538822E-002 9.506699E-001
 2.853611E-001 6.743667E-003 4.534065E-002 9.434847E-001
 2.879470E-001 6.996489E-003 4.530231E-002 9.368665E-001
 2.908448E-001 7.181243E-003 4.527337E-002 9.306046E-001
 2.940810E-001 7.304113E-003 4.525368E-002 9.252275E-001
 2.976841E-001 7.364214E-003 4.524390E-002 9.216599E-001
 3.016844E-001 7.353547E-003 4.524558E-002 9.044555E-001
 3.061831E-001 7.262163E-003 4.526037E-002 8.642594E-001
 3.109339E-001 7.042859E-003 4.529503E-002 8.380100E-001
 3.157598E-001 6.667162E-003 4.535186E-002 8.521569E-001
 3.204725E-001 6.136125E-003 4.542677E-002 8.807015E-001
 3.248998E-001 5.474957E-003 4.551119E-002 9.010267E-001
 3.289097E-001 4.726479E-003 4.559500E-002 9.197286E-001
 3.324262E-001 3.955116E-003 4.566837E-002 9.447668E-001
 3.354257E-001 3.217473E-003 4.572626E-002 9.744440E-001
 3.379245E-001 2.548927E-003 4.576839E-002 1.004638E+000
 3.399663E-001 1.968601E-003 4.579702E-002 1.032505E+000
 3.416094E-001 1.482722E-003 4.581532E-002 1.054243E+000
 3.429156E-001 1.086805E-003 4.582642E-002 1.064823E+000
 3.439442E-001 7.708991E-004 4.583282E-002 1.062709E+000
 3.447483E-001 5.229053E-004 4.583631E-002 1.052005E+000
 3.453741E-001 3.313743E-004 4.583809E-002 1.039472E+000
 3.458593E-001 1.851302E-004 4.583891E-002 1.035699E+000
 2.729049E-001 4.047750E-020 4.584668E-002 1.038338E+000
 2.729860E-001 6.959978E-004 4.584135E-002 1.041661E+000
 2.732533E-001 1.441590E-003 4.582395E-002 1.040699E+000
 2.737339E-001 2.196860E-003 4.579397E-002 1.032721E+000
 2.744240E-001 2.936794E-003 4.575252E-002 1.019107E+000
 2.753168E-001 3.649833E-003 4.570122E-002 1.002161E+000
 2.764149E-001 4.325502E-003 4.564229E-002 9.839370E-001
 2.777261E-001 4.952057E-003 4.557862E-002 9.661218E-001
 2.792619E-001 5.517226E-003 4.551371E-002 9.498973E-001
 2.810368E-001 6.007094E-003 4.545168E-002 9.359290E-001
 2.830642E-001 6.415747E-003 4.539580E-002 9.244584E-001
 2.853611E-001 6.743657E-003 4.534823E-002 9.152042E-001
 2.879469E-001 6.996486E-003 4.530989E-002 9.074526E-001
 2.908448E-001 7.181244E-003 4.528093E-002 9.007930E-001
 2.940810E-001 7.304112E-003 4.526121E-002 8.958069E-001
 2.976842E-001 7.364214E-003 4.525140E-002 8.935539E-001
 3.016845E-001 7.353546E-003 4.525303E-002 8.790540E-001
 3.061833E-001 7.262159E-003 4.526787E-002 8.497737E-001
 3.109340E-001 7.042855E-003 4.530255E-002 8.405438E-001
 3.157600E-001 6.667163E-003 4.535940E-002 8.591328E-001
 3.204727E-001 6.136131E-003 4.543431E-002 8.803369E-001
 3.248999E-001 5.474959E-003 4.551874E-002 8.972801E-001
 3.289097E-001 4.726477E-003 4.560254E-002 9.178592E-001
 3.324262E-001 3.955118E-003 4.567591E-002 9.445977E-001
 3.354257E-001 3.217481E-003 4.573379E-002 9.741126E-001
 3.379245E-001 2.548940E-003 4.577592E-002 1.003104E+000
 3.399664E-001 1.968618E-003 4.580454E-002 1.029937E+000
 3.416094E-001 1.482742E-003 4.582283E-002 1.052076E+000
 3.429156E-001 1.086828E-003 4.583393E-002 1.064971E+000
 3.439442E-001 7.709234E-004 4.584032E-002 1.066001E+000
 3.447483E-001 5.229304E-004 4.584381E-002 1.057742E+000
 3.453741E-001 3.313982E-004 4.584559E-002 1.046679E+000
 3.458593E-001 1.851517E-004 4.584641E-002 1.044124E+000
 2.729049E-001 2.747236E-018 4.585567E-002 1.053201E+000
 2.729860E-001 6.959681E-004 4.585031E-002 1.057704E+000
 2.732533E-001 1.441531E-003 4.583291E-002 1.056207E+000
 2.737339E-001 2.196780E-003 4.580297E-002 1.045046E+000
 2.744239E-001 2.936703E-003 4.576156E-002 1.026174E+000
 2.753167E-001 3.649739E-003 4.571031E-002 1.002827E+000
 2.764148E-001 4.325414E-003 4.565144E-002 9.778956E-001
 2.777259E-001 4.951984E-003 4.558784E-002 9.537692E-001
 2.792618E-001 5.517170E-003 4.552298E-002 9.321568E-001
 2.810366E-001 6.007055E-003 4.546099E-002 9.140553E-001
 2.830640E-001 6.415723E-003 4.540514E-002 8.998591E-001
 2.853609E-001 6.743645E-003 4.535759E-002 8.892373E-001
 2.879469E-001 6.996482E-003 4.531924E-002 8.812248E-001
 2.908448E-001 7.181244E-003 4.529027E-002 8.751748E-001
 2.940811E-001 7.304112E-003 4.527054E-002 8.715965E-001
 2.976844E-001 7.364213E-003 4.526072E-002 8.715152E-001
 3.016847E-001 7.353545E-003 4.526230E-002 8.618641E-001
 3.061835E-001 7.262154E-003 4.527720E-002 8.446465E-001
 3.109342E-001 7.042850E-003 4.531192E-002 8.459611E-001
 3.157601E-001 6.667163E-003 4.536881E-002 8.617542E-001
 3.204728E-001 6.136137E-003 4.544375E-002 8.770065E-001
 3.249001E-001 5.474960E-003 4.552818E-002 8.941885E-001
 3.289098E-001 4.726474E-003 4.561199E-002 9.168773E-001
 3.324263E-001 3.955120E-003 4.568535E-002 9.444996E-001
 3.354258E-001 3.217489E-003 4.574324E-002 9.738222E-001
 3.379245E-001 2.548954E-003 4.578536E-002 1.002135E+000
 3.399664E-001 1.968638E-003 4.581399E-002 1.028223E+000
 3.416094E-001 1.482767E-003 4.583228E-002 1.049826E+000
 3.429156E-001 1.086855E-003 4.584337E-002 1.063181E+000
 3.439441E-001 7.709524E-004 4.584977E-002 1.066048E+000
 3.447483E-001 5.229606E-004 4.585325E-002 1.060183E+000
 3.453741E-001 3.314266E-004 4.585503E-002 1.051293E+000
 3.458593E-001 1.851773E-004 4.585585E-002 1.050237E+000
 2.729049E-001 8.437311E-018 4.586668E-002 1.067980E+000
 2.729859E-001 6.959316E-004 4.586130E-002 1.073642E+000
 2.732532E-001 1.441458E-003 4.584390E-002 1.071588E+000
 2.737338E-001 2.196681E-003 4.581399E-002 1.057241E+000
 2.744237E-001 2.936591E-003 4.577264E-002 1.033140E+000
 2.753165E-001 3.649624E-003 4.572147E-002 1.003459E+000
 2.764145E-001 4.325306E-003 4.566268E-002 9.719412E-001
 2.777257E-001 4.951894E-003 4.559916E-002 9.416823E-001
 2.792615E-001 5.517101E-003 4.553438E-002 9.149351E-001
 2.810364E-001 6.007007E-003 4.547245E-002 8.930535E-001
 2.830639E-001 6.415694E-003 4.541665E-002 8.766182E-001
 2.853608E-001 6.743630E-003 4.536912E-002 8.652777E-001
 2.879468E-001 6.996477E-003 4.533079E-002 8.578542E-001
 2.908447E-001 7.181246E-003 4.530182E-002 8.534558E-001
 2.940812E-001 7.304111E-003 4.528210E-002 8.523183E-001
 2.976845E-001 7.364212E-003 4.527226E-002 8.551670E-001
 3.016849E-001 7.353543E-003 4.527381E-002 8.515858E-001
 3.061837E-001 7.262148E-003 4.528882E-002 8.453079E-001
 3.109344E-001 7.042843E-003 4.532361E-002 8.510753E-001
 3.157603E-001 6.667162E-003 4.538055E-002 8.612696E-001
 3.204730E-001 6.136144E-003 4.545553E-002 8.732826E-001
 3.249002E-001 5.474962E-003 4.554000E-002 8.920123E-001
 3.289100E-001 4.726469E-003 4.562382E-002 9.161741E-001
 3.324264E-001 3.955121E-003 4.569720E-002 9.441183E-001
 3.354258E-001 3.217499E-003 4.575510E-002 9.731408E-001
 3.379245E-001 2.548971E-003 4.579723E-002 1.000912E+000
 3.399664E-001 1.968661E-003 4.582586E-002 1.026460E+000
 3.416094E-001 1.482795E-003 4.584416E-002 1.047415E+000
 3.429156E-001 1.086888E-003 4.585525E-002 1.060625E+000
 3.439441E-001 7.709873E-004 4.586165E-002 1.064625E+000
 3.447483E-001 5.229968E-004 4.586513E-002 1.060945E+000
 3.453740E-001 3.314606E-004 4.586691E-002 1.054462E+000
 3.458593E-001 1.852076E-004 4.586773E-002 1.054999E+000
 2.729049E-001 1.420292E-019 4.588016E-002 1.082726E+000
 2.729859E-001 6.958870E-004 4.587474E-002 1.089536E+000
 2.732532E-001 1.441368E-003 4.585736E-002 1.086918E+000
 2.737337E-001 2.196561E-003 4.582750E-002 1.069387E+000
 2.744236E-001 2.936454E-003 4.578623E-002 1.040078E+000
 2.753163E-001 3.649483E-003 4.573516E-002 1.004111E+000
 2.764143E-001 4.325174E-003 4.567648E-002 9.660929E-001
 2.777254E-001 4.951784E-003 4.561307E-002 9.298514E-001
 2.792613E-001 5.517017E-003 4.554840E-002 8.981972E-001
 2.810361E-001 6.006949E-003 4.548655E-002 8.728724E-001
 2.830636E-001 6.415658E-003 4.543082E-002 8.546920E-001
 2.853606E-001 6.743612E-003 4.538334E-002 8.433561E-001
 2.879467E-001 6.996472E-003 4.534504E-002 8.375055E-001
 2.908447E-001 7.181248E-003 4.531611E-002 8.359222E-001
 2.940812E-001 7.304110E-003 4.529641E-002 8.382819E-001
 2.976847E-001 7.364211E-003 4.528659E-002 8.446311E-001
 3.016852E-001 7.353542E-003 4.528812E-002 8.472765E-001
 3.061840E-001 7.262141E-003 4.530327E-002 8.488165E-001
 3.109347E-001 7.042835E-003 4.533816E-002 8.539764E-001
 3.157606E-001 6.667161E-003 4.539520E-002 8.587390E-001
 3.204733E-001 6.136152E-003 4.547026E-002 8.701102E-001
 3.249004E-001 5.474962E-003 4.555478E-002 8.904964E-001
 3.289101E-001 4.726462E-003 4.563864E-002 9.156960E-001
 3.324265E-001 3.955122E-003 4.571205E-002 9.438572E-001
 3.354259E-001 3.217509E-003 4.576997E-002 9.725555E-001
 3.379246E-001 2.548991E-003 4.581213E-002 9.995966E-001
 3.399664E-001 1.968689E-003 4.584078E-002 1.024136E+000
 3.416094E-001 1.482829E-003 4.585909E-002 1.044350E+000
 3.429156E-001 1.086927E-003 4.587020E-002 1.057518E+000
 3.439441E-001 7.710291E-004 4.587660E-002 1.062531E+000
 3.447483E-001 5.230402E-004 4.588008E-002 1.060912E+000
 3.453740E-001 3.315013E-004 4.588186E-002 1.056858E+000
 3.458593E-001 1.852435E-004 4.588269E-002 1.058982E+000
 2.729049E-001 1.920608E-019 4.589665E-002 1.097491E+000
 2.729859E-001 6.958324E-004 4.589121E-002 1.105448E+000
 2.732531E-001 1.441259E-003 4.587385E-002 1.102267E+000
 2.737336E-001 2.196413E-003 4.584405E-002 1.081556E+000
 2.744234E-001 2.936285E-003 4.580289E-002 1.047058E+000
 2.753161E-001 3.649311E-003 4.575195E-002 1.004845E+000
 2.764140E-001 4.325013E-003 4.569342E-002 9.604101E-001
 2.777251E-001 4.951649E-003 4.563016E-002 9.183356E-001
 2.792609E-001 5.516914E-003 4.556563E-002 8.820239E-001
 2.810358E-001 6.006876E-003 4.550391E-002 8.536568E-001
 2.830633E-001 6.415613E-003 4.544827E-002 8.343564E-001
 2.853604E-001 6.743590E-003 4.540088E-002 8.239846E-001
 2.879466E-001 6.996465E-003 4.536264E-002 8.209966E-001
 2.908447E-001 7.181251E-003 4.533378E-002 8.235843E-001
 2.940814E-001 7.304109E-003 4.531413E-002 8.304198E-001
 2.976849E-001 7.364210E-003 4.530436E-002 8.404048E-001
 3.016856E-001 7.353540E-003 4.530589E-002 8.480492E-001
 3.061843E-001 7.262131E-003 4.532124E-002 8.527479E-001
 3.109350E-001 7.042824E-003 4.535629E-002 8.540250E-001
 3.157610E-001 6.667159E-003 4.541347E-002 8.554783E-001
 3.204736E-001 6.136162E-003 4.548866E-002 8.676637E-001
 3.249007E-001 5.474962E-003 4.557327E-002 8.891333E-001
 3.289103E-001 4.726451E-003 4.565720E-002 9.151459E-001
 3.324266E-001 3.955121E-003 4.573067E-002 9.437421E-001
 3.354260E-001 3.217520E-003 4.578865E-002 9.724418E-001
 3.379246E-001 2.549014E-003 4.583085E-002 9.986996E-001
 3.399664E-001 1.968722E-003 4.585953E-002 1.021706E+000
 3.416094E-001 1.482870E-003 4.587787E-002 1.040792E+000
 3.429155E-001 1.086974E-003 4.588899E-002 1.053954E+000
 3.439441E-001 7.710793E-004 4.589539E-002 1.060045E+000
 3.447483E-001 5.230924E-004 4.589889E-002 1.060431E+000
 3.453740E-001 3.315499E-004 4.590067E-002 1.058768E+000
 3.458593E-001 1.852860E-004 4.590151E-002 1.062437E+000
 2.729049E-001 2.532855E-019 4.591684E-002 1.112346E+000
 2.729859E-001 6.957655E-004 4.591136E-002 1.121456E+000
 2.732531E-001 1.441125E-003 4.589403E-002 1.117723E+000
 2.737334E-001 2.196232E-003 4.586434E-002 1.093834E+000
 2.744232E-001 2.936080E-003 4.582331E-002 1.054157E+000
 2.753158E-001 3.649099E-003 4.577255E-002 1.005732E+000
 2.764136E-001 4.324814E-003 4.571421E-002 9.549580E-001
 2.777247E-001 4.951484E-003 4.565115E-002 9.072089E-001
 2.792605E-001 5.516787E-003 4.558681E-002 8.665351E-001
 2.810354E-001 6.006788E-003 4.552526E-002 8.356535E-001
 2.830630E-001 6.415559E-003 4.546977E-002 8.161199E-001
 2.853601E-001 6.743563E-003 4.542249E-002 8.079822E-001
 2.879464E-001 6.996457E-003 4.538437E-002 8.093320E-001
 2.908447E-001 7.181254E-003 4.535561E-002 8.172469E-001
 2.940815E-001 7.304107E-003 4.533606E-002 8.288656E-001
 2.976852E-001 7.364209E-003 4.532639E-002 8.416697E-001
 3.016860E-001 7.353538E-003 4.532797E-002 8.514218E-001
 3.061848E-001 7.262119E-003 4.534360E-002 8.544086E-001
 3.109355E-001 7.042811E-003 4.537888E-002 8.512475E-001
 3.157614E-001 6.667156E-003 4.543626E-002 8.521911E-001
 3.204740E-001 6.136173E-003 4.551164E-002 8.655745E-001
 3.249010E-001 5.474960E-003 4.559639E-002 8.877171E-001
 3.289105E-001 4.726436E-003 4.568043E-002 9.143865E-001
 3.324268E-001 3.955118E-003 4.575401E-002 9.435353E-001
 3.354261E-001 3.217531E-003 4.581207E-002 9.725671E-001
 3.379247E-001 2.549040E-003 4.585434E-002 9.985340E-001
 3.399664E-001 1.968761E-003 4.588307E-002 1.020143E+000
 3.416094E-001 1.482919E-003 4.590145E-002 1.037633E+000
 3.429155E-001 1.087030E-003 4.591260E-002 1.050396E+000
 3.439440E-001 7.711396E-004 4.591903E-002 1.057420E+000
 3.447482E-001 5.231551E-004 4.592254E-002 1.059690E+000
 3.453740E-001 3.316081E-004 4.592434E-002 1.060333E+000
 3.458593E-001 1.853366E-004 4.592519E-002 1.065489E+000
 2.729049E-001 -2.351288E-018 4.594154E-002 1.127396E+000
 2.729858E-001 6.956838E-004 4.593603E-002 1.137676E+000
 2.732530E-001 1.440961E-003 4.591875E-002 1.133411E+000
 2.737333E-001 2.196010E-003 4.588918E-002 1.106330E+000
 2.744229E-001 2.935827E-003 4.584834E-002 1.061452E+000
 2.753154E-001 3.648840E-003 4.579781E-002 1.006807E+000
 2.764132E-001 4.324571E-003 4.573972E-002 9.497440E-001
 2.777242E-001 4.951281E-003 4.567692E-002 8.964869E-001
 2.792600E-001 5.516631E-003 4.561283E-002 8.518246E-001
 2.810349E-001 6.006679E-003 4.555152E-002 8.191536E-001
 2.830625E-001 6.415492E-003 4.549624E-002 8.005815E-001
 2.853598E-001 6.743529E-003 4.544915E-002 7.961079E-001
 2.879462E-001 6.996446E-003 4.541120E-002 8.028818E-001
 2.908447E-001 7.181258E-003 4.538259E-002 8.161727E-001
 2.940817E-001 7.304106E-003 4.536321E-002 8.314862E-001
 2.976856E-001 7.364207E-003 4.535370E-002 8.451791E-001
 3.016865E-001 7.353536E-003 4.535538E-002 8.532726E-001
 3.061853E-001 7.262104E-003 4.537141E-002 8.522054E-001
 3.109360E-001 7.042793E-003 4.540701E-002 8.469926E-001
 3.157619E-001 6.667152E-003 4.546469E-002 8.494176E-001
 3.204744E-001 6.136185E-003 4.554034E-002 8.637422E-001
 3.249014E-001 5.474956E-003 4.562531E-002 8.863607E-001
 3.289108E-001 4.726416E-003 4.570953E-002 9.135259E-001
 3.324270E-001 3.955112E-003 4.578326E-002 9.431259E-001
 3.354262E-001 3.217544E-003 4.584144E-002 9.726027E-001
 3.379248E-001 2.549070E-003 4.588382E-002 9.988347E-001
 3.399665E-001 1.968806E-003 4.591264E-002 1.019689E+000
 3.416094E-001 1.482977E-003 4.593109E-002 1.035494E+000
 3.429155E-001 1.087097E-003 4.594229E-002 1.047267E+000
 3.439440E-001 7.712122E-004 4.594875E-002 1.054810E+000
 3.447482E-001 5.232306E-004 4.595229E-002 1.058757E+000
 3.453740E-001 3.316778E-004 4.595410E-002 1.061603E+000
 3.458593E-001 1.853966E-004 4.595497E-002 1.068189E+000
 2.729049E-001 -4.939144E-018 4.597174E-002 1.142794E+000
 2.729858E-001 6.955837E-004 4.596621E-002 1.154272E+000
 2.732529E-001 1.440760E-003 4.594901E-002 1.149491E+000
 2.737330E-001 2.195739E-003 4.591961E-002 1.119154E+000
 2.744226E-001 2.935519E-003 4.587902E-002 1.068971E+000
 2.753150E-001 3.648522E-003 4.582878E-002 1.008011E+000
 2.764127E-001 4.324273E-003 4.577102E-002 9.446496E-001
 2.777236E-001 4.951032E-003 4.570857E-002 8.860735E-001
 2.792594E-001 5.516440E-003 4.564482E-002 8.379531E-001
 2.810343E-001 6.006545E-003 4.558382E-002 8.045235E-001
 2.830620E-001 6.415410E-003 4.552882E-002 7.882904E-001
 2.853594E-001 6.743488E-003 4.548199E-002 7.885407E-001
 2.879460E-001 6.996433E-003 4.544429E-002 8.005015E-001
 2.908446E-001 7.181264E-003 4.541593E-002 8.174600E-001
 2.940819E-001 7.304104E-003 4.539681E-002 8.339719E-001
 2.976861E-001 7.364206E-003 4.538755E-002 8.462311E-001
 3.016872E-001 7.353533E-003 4.538943E-002 8.509757E-001
 3.061860E-001 7.262086E-003 4.540599E-002 8.476252E-001
 3.109367E-001 7.042771E-003 4.544203E-002 8.432955E-001
 3.157625E-001 6.667146E-003 4.550014E-002 8.474732E-001
 3.204750E-001 6.136200E-003 4.557617E-002 8.624506E-001
 3.249019E-001 5.474950E-003 4.566147E-002 8.852334E-001
 3.289112E-001 4.726388E-003 4.574594E-002 9.126201E-001
 3.324273E-001 3.955102E-003 4.581990E-002 9.425281E-001
 3.354264E-001 3.217556E-003 4.587828E-002 9.723858E-001
 3.379249E-001 2.549105E-003 4.592081E-002 9.991047E-001
 3.399665E-001 1.968861E-003 4.594976E-002 1.019989E+000
 3.416094E-001 1.483047E-003 4.596831E-002 1.034585E+000
 3.429154E-001 1.087178E-003 4.597959E-002 1.044908E+000
 3.439440E-001 7.712995E-004 4.598611E-002 1.052354E+000
 3.447481E-001 5.233214E-004 4.598968E-002 1.057655E+000
 3.453739E-001 3.317613E-004 4.599152E-002 1.062577E+000
 3.458593E-001 1.854677E-004 4.599242E-002 1.070538E+000
 2.729049E-001 5.318564E-019 4.600868E-002 1.158768E+000
 2.729858E-001 6.954613E-004 4.600314E-002 1.171471E+000
 2.732528E-001 1.440514E-003 4.598605E-002 1.166143E+000
 2.737328E-001 2.195406E-003 4.595687E-002 1.132365E+000
 2.744221E-001 2.935140E-003 4.591659E-002 1.076603E+000
 2.753144E-001 3.648133E-003 4.586674E-002 1.009074E+000
 2.764120E-001 4.323907E-003 4.580941E-002 9.393504E-001
 2.777228E-001 4.950726E-003 4.574741E-002 8.757736E-001
 2.792586E-001 5.516205E-003 4.568411E-002 8.250923E-001
 2.810335E-001 6.006381E-003 4.562353E-002 7.923236E-001
 2.830614E-001 6.415309E-003 4.556893E-002 7.796727E-001
 2.853589E-001 6.743438E-003 4.552247E-002 7.845818E-001
 2.879457E-001 6.996418E-003 4.548512E-002 7.997670E-001
 2.908446E-001 7.181270E-003 4.545712E-002 8.175433E-001
 2.940821E-001 7.304102E-003 4.543837E-002 8.330281E-001
 2.976866E-001 7.364204E-003 4.542949E-002 8.435260E-001
 3.016880E-001 7.353530E-003 4.543168E-002 8.472033E-001
 3.061869E-001 7.262062E-003 4.544897E-002 8.446101E-001
 3.109375E-001 7.042742E-003 4.548562E-002 8.419518E-001
 3.157634E-001 6.667136E-003 4.554433E-002 8.470542E-001
 3.204758E-001 6.136216E-003 4.562090E-002 8.619714E-001
 3.249025E-001 5.474939E-003 4.570665E-002 8.843330E-001
 3.289116E-001 4.726352E-003 4.579150E-002 9.116488E-001
 3.324276E-001 3.955087E-003 4.586579E-002 9.417710E-001
 3.354266E-001 3.217569E-003 4.592444E-002 9.719196E-001
 3.379250E-001 2.549145E-003 4.596721E-002 9.990798E-001
 3.399665E-001 1.968925E-003 4.599635E-002 1.020517E+000
 3.416094E-001 1.483130E-003 4.601504E-002 1.034752E+000
 3.429154E-001 1.087275E-003 4.602643E-002 1.043645E+000
 3.439439E-001 7.714047E-004 4.603303E-002 1.050318E+000
 3.447481E-001 5.234309E-004 4.603666E-002 1.056453E+000
 3.453739E-001 3.318613E-004 4.603854E-002 1.063245E+000
 3.458593E-001 1.855523E-004 4.603950E-002 1.072499E+000
 2.729049E-001 6.688096E-019 4.605383E-002 1.175625E+000
 2.729857E-001 6.953118E-004 4.604829E-002 1.189543E+000
 2.732526E-001 1.440214E-003 4.603135E-002 1.183510E+000
 2.737325E-001 2.195000E-003 4.600247E-002 1.145851E+000
 2.744216E-001 2.934678E-003 4.596261E-002 1.083931E+000
 2.753137E-001 3.647656E-003 4.591325E-002 1.009375E+000
 2.764112E-001 4.323460E-003 4.585648E-002 9.332759E-001
 2.777219E-001 4.950352E-003 4.579507E-002 8.654409E-001
 2.792577E-001 5.515917E-003 4.573236E-002 8.137528E-001
 2.810327E-001 6.006180E-003 4.567235E-002 7.833604E-001
 2.830606E-001 6.415185E-003 4.561828E-002 7.748112E-001
 2.853583E-001 6.743376E-003 4.557232E-002 7.828648E-001
 2.879453E-001 6.996399E-003 4.553548E-002 7.990689E-001
 2.908446E-001 7.181278E-003 4.550799E-002 8.163614E-001
 2.940825E-001 7.304100E-003 4.548977E-002 8.308942E-001
 2.976874E-001 7.364201E-003 4.548144E-002 8.412600E-001
 3.016891E-001 7.353527E-003 4.548410E-002 8.464280E-001
 3.061879E-001 7.262032E-003 4.550236E-002 8.459056E-001
 3.109386E-001 7.042706E-003 4.553986E-002 8.441119E-001
 3.157644E-001 6.667123E-003 4.559938E-002 8.485009E-001
 3.204767E-001 6.136235E-003 4.567670E-002 8.620879E-001
 3.249032E-001 5.474925E-003 4.576309E-002 8.835215E-001
 3.289122E-001 4.726303E-003 4.584847E-002 9.105895E-001
 3.324280E-001 3.955065E-003 4.592323E-002 9.408717E-001
 3.354269E-001 3.217581E-003 4.598228E-002 9.712549E-001
 3.379251E-001 2.549191E-003 4.602537E-002 9.987223E-001
 3.399666E-001 1.969001E-003 4.605478E-002 1.020822E+000
 3.416094E-001 1.483229E-003 4.607368E-002 1.035532E+000
 3.429153E-001 1.087392E-003 4.608523E-002 1.043622E+000
 3.439438E-001 7.715313E-004 4.609196E-002 1.049067E+000
 3.447480E-001 5.235629E-004 4.609567E-002 1.055319E+000
 3.453738E-001 3.319814E-004 4.609761E-002 1.063616E+000
 3.458592E-001 1.856527E-004 4.609863E-002 1.074024E+000
 2.729049E-001 8.361418E-019 4.610900E-002 1.193738E+000
 2.729856E-001 6.951290E-004 4.610347E-002 1.208764E+000
 2.732524E-001 1.439847E-003 4.608674E-002 1.201570E+000
 2.737321E-001 2.194503E-003 4.605826E-002 1.159133E+000
 2.744210E-001 2.934111E-003 4.601893E-002 1.090036E+000
 2.753129E-001 3.647073E-003 4.597022E-002 1.007858E+000
 2.764102E-001 4.322911E-003 4.591417E-002 9.257650E-001
 2.777208E-001 4.949894E-003 4.585353E-002 8.553063E-001
 2.792565E-001 5.515564E-003 4.579159E-002 8.048506E-001
 2.810315E-001 6.005933E-003 4.573233E-002 7.782440E-001
 2.830596E-001 6.415033E-003 4.567898E-002 7.732858E-001
 2.853576E-001 6.743300E-003 4.563371E-002 7.832862E-001
 2.879449E-001 6.996376E-003 4.559755E-002 8.002715E-001
 2.908446E-001 7.181290E-003 4.557078E-002 8.175617E-001
 2.940829E-001 7.304098E-003 4.555332E-002 8.318788E-001
 2.976882E-001 7.364199E-003 4.554576E-002 8.425325E-001
 3.016904E-001 7.353522E-003 4.554911E-002 8.488486E-001
 3.061892E-001 7.261996E-003 4.556866E-002 8.496887E-001
 3.109398E-001 7.042660E-003 4.560731E-002 8.480091E-001
 3.157656E-001 6.667105E-003 4.566794E-002 8.508062E-001
 3.204779E-001 6.136256E-003 4.574629E-002 8.624269E-001
 3.249041E-001 5.474903E-003 4.583356E-002 8.827280E-001
 3.289129E-001 4.726238E-003 4.591969E-002 9.094669E-001
 3.324285E-001 3.955033E-003 4.599509E-002 9.398587E-001
 3.354272E-001 3.217591E-003 4.605469E-002 9.704430E-001
 3.379253E-001 2.549244E-003 4.609825E-002 9.980969E-001
 3.399667E-001 1.969090E-003 4.612802E-002 1.020656E+000
 3.416094E-001 1.483348E-003 4.614722E-002 1.036278E+000
 3.429153E-001 1.087532E-003 4.615900E-002 1.044565E+000
 3.439437E-001 7.716840E-004 4.616589E-002 1.048939E+000
 3.447479E-001 5.237221E-004 4.616972E-002 1.054580E+000
 3.453737E-001 3.321255E-004 4.617176E-002 1.063767E+000
 3.458592E-001 1.857720E-004 4.617287E-002 1.075063E+000
 2.729049E-001 -1.639001E-018 4.617636E-002 1.213484E+000
 2.729855E-001 6.949058E-004 4.617089E-002 1.229287E+000
 2.732522E-001 1.439398E-003 4.615445E-002 1.219929E+000
 2.737316E-001 2.193896E-003 4.612647E-002 1.171170E+000
 2.744202E-001 2.933419E-003 4.608784E-002 1.093478E+000
 2.753119E-001 3.646359E-003 4.603997E-002 1.003333E+000
 2.764090E-001 4.322240E-003 4.598485E-002 9.166608E-001
 2.777195E-001 4.949332E-003 4.592520E-002 8.462418E-001
 2.792551E-001 5.515132E-003 4.586427E-002 7.993641E-001
 2.810302E-001 6.005630E-003 4.580599E-002 7.771834E-001
 2.830584E-001 6.414847E-003 4.575359E-002 7.754955E-001
 2.853566E-001 6.743207E-003 4.570925E-002 7.873602E-001
 2.879444E-001 6.996349E-003 4.567403E-002 8.049838E-001
 2.908445E-001 7.181303E-003 4.564824E-002 8.219028E-001
 2.940834E-001 7.304095E-003 4.563181E-002 8.352336E-001
 2.976893E-001 7.364197E-003 4.562535E-002 8.448171E-001
 3.016919E-001 7.353518E-003 4.562968E-002 8.504758E-001
 3.061908E-001 7.261950E-003 4.565095E-002 8.515847E-001
 3.109414E-001 7.042603E-003 4.569114E-002 8.505950E-001
 3.157672E-001 6.667082E-003 4.575326E-002 8.529116E-001
 3.204793E-001 6.136280E-003 4.583301E-002 8.629892E-001
 3.249053E-001 5.474873E-003 4.592149E-002 8.820792E-001
 3.289137E-001 4.726154E-003 4.600864E-002 9.083542E-001
 3.324291E-001 3.954988E-003 4.608493E-002 9.387689E-001
 3.354276E-001 3.217599E-003 4.614530E-002 9.695239E-001
 3.379256E-001 2.549304E-003 4.618949E-002 9.973063E-001
 3.399668E-001 1.969196E-003 4.621977E-002 1.020061E+000
 3.416094E-001 1.483490E-003 4.623938E-002 1.036539E+000
 3.429151E-001 1.087702E-003 4.625147E-002 1.045888E+000
 3.439435E-001 7.718683E-004 4.625859E-002 1.050023E+000
 3.447478E-001 5.239144E-004 4.626259E-002 1.054650E+000
 3.453737E-001 3.322985E-004 4.626476E-002 1.063850E+000
 3.458592E-001 1.859137E-004 4.626599E-002 1.075574E+000
 2.729049E-001 -1.389639E-018 4.625857E-002 1.235077E+000
 2.729854E-001 6.946333E-004 4.625320E-002 1.250924E+000
 2.732519E-001 1.438851E-003 4.623714E-002 1.237586E+000
 2.737310E-001 2.193154E-003 4.620983E-002 1.180400E+000
 2.744193E-001 2.932573E-003 4.617209E-002 1.092870E+000
 2.753106E-001 3.645487E-003 4.612529E-002 9.955818E-001
 2.764075E-001 4.321419E-003 4.607137E-002 9.072248E-001
 2.777178E-001 4.948645E-003 4.601300E-002 8.399165E-001
 2.792534E-001 5.514602E-003 4.595337E-002 7.980994E-001
 2.810286E-001 6.005259E-003 4.589639E-002 7.802776E-001
 2.830570E-001 6.414618E-003 4.584525E-002 7.811459E-001
 2.853556E-001 6.743093E-003 4.580216E-002 7.935796E-001
 2.879438E-001 6.996315E-003 4.576821E-002 8.099388E-001
 2.908445E-001 7.181320E-003 4.574374E-002 8.249258E-001
 2.940841E-001 7.304091E-003 4.572874E-002 8.364183E-001
 2.976906E-001 7.364194E-003 4.572376E-002 8.449318E-001
 3.016939E-001 7.353513E-003 4.572945E-002 8.501066E-001
 3.061928E-001 7.261892E-003 4.575299E-002 8.514518E-001
 3.109434E-001 7.042530E-003 4.579524E-002 8.516880E-001
 3.157691E-001 6.667051E-003 4.585936E-002 8.546271E-001
 3.204811E-001 6.136306E-003 4.594098E-002 8.638799E-001
 3.249068E-001 5.474831E-003 4.603109E-002 8.816981E-001
 3.289148E-001 4.726043E-003 4.611963E-002 9.073142E-001
 3.324299E-001 3.954927E-003 4.619715E-002 9.376334E-001
 3.354281E-001 3.217603E-003 4.625855E-002 9.685089E-001
 3.379259E-001 2.549373E-003 4.630360E-002 9.964299E-001
 3.399669E-001 1.969322E-003 4.633458E-002 1.019306E+000
 3.416093E-001 1.483661E-003 4.635474E-002 1.036339E+000
 3.429150E-001 1.087906E-003 4.636726E-002 1.047006E+000
 3.439434E-001 7.720907E-004 4.637470E-002 1.051927E+000
 3.447476E-001 5.241464E-004 4.637894E-002 1.055725E+000
 3.453735E-001 3.325064E-004 4.638128E-002 1.064052E+000
 3.458592E-001 1.860822E-004 4.638269E-002 1.075569E+000
 2.729049E-001 -1.085579E-018 4.635882E-002 1.258334E+000
 2.729853E-001 6.943010E-004 4.635359E-002 1.272951E+000
 2.732516E-001 1.438183E-003 4.633805E-002 1.252981E+000
 2.737303E-001 2.192249E-003 4.631161E-002 1.185391E+000
 2.744182E-001 2.931540E-003 4.627502E-002 1.088184E+000
 2.753091E-001 3.644421E-003 4.622958E-002 9.866239E-001
 2.764057E-001 4.320416E-003 4.617720E-002 9.001073E-001
 2.777158E-001 4.947804E-003 4.612048E-002 8.378762E-001
 2.792513E-001 5.513954E-003 4.606254E-002 8.008325E-001
 2.810265E-001 6.004805E-003 4.600724E-002 7.857322E-001
 2.830552E-001 6.414338E-003 4.595776E-002 7.867019E-001
 2.853542E-001 6.742953E-003 4.591632E-002 7.970594E-001
 2.879430E-001 6.996274E-003 4.588407E-002 8.108864E-001
 2.908445E-001 7.181342E-003 4.586139E-002 8.243415E-001
 2.940849E-001 7.304089E-003 4.584828E-002 8.358911E-001
 2.976923E-001 7.364192E-003 4.584532E-002 8.449667E-001
 3.016964E-001 7.353507E-003 4.585290E-002 8.504516E-001
 3.061953E-001 7.261821E-003 4.587941E-002 8.516845E-001
 3.109459E-001 7.042438E-003 4.592438E-002 8.521169E-001
 3.157715E-001 6.667010E-003 4.599116E-002 8.558748E-001
 3.204833E-001 6.136335E-003 4.607527E-002 8.649809E-001
 3.249085E-001 5.474775E-003 4.616757E-002 8.816186E-001
 3.289161E-001 4.725901E-003 4.625798E-002 9.064071E-001
 3.324308E-001 3.954845E-003 4.633714E-002 9.365007E-001
 3.354287E-001 3.217600E-003 4.639994E-002 9.674031E-001
 3.379262E-001 2.549451E-003 4.644615E-002 9.954669E-001
 3.399670E-001 1.969470E-003 4.647808E-002 1.018551E+000
 3.416093E-001 1.483865E-003 4.649898E-002 1.035949E+000